ligand_gaff_GMX.gro created by acpype (v: 2023.10.27) on Thu Mar 19 07:55:00 2026
 83
    1  LIG    N    1   4.447   3.711   4.930
    1  LIG   N1    2   4.471   3.620   4.821
    1  LIG   N2    3   4.617   3.823   5.252
    1  LIG   N3    4   4.232   3.976   5.526
    1  LIG   N4    5   4.283   3.341   4.661
    1  LIG    C    6   4.389   3.498   4.838
    1  LIG   C1    7   4.310   3.524   4.966
    1  LIG   C2    8   4.312   3.676   4.980
    1  LIG   C3    9   4.205   3.759   4.899
    1  LIG   C4   10   4.223   3.912   4.912
    1  LIG   C5   11   4.179   3.965   5.049
    1  LIG   C6   12   4.033   3.928   5.076
    1  LIG   C7   13   4.016   3.776   5.070
    1  LIG   C8   14   4.058   3.721   4.931
    1  LIG   C9   15   4.179   3.448   4.994
    1  LIG  C10   16   4.552   3.712   5.038
    1  LIG  C11   17   4.696   3.740   4.986
    1  LIG  C12   18   4.795   3.748   5.104
    1  LIG  C13   19   4.753   3.854   5.205
    1  LIG  C14   20   4.521   3.824   5.141
    1  LIG  C15   21   4.571   3.906   5.366
    1  LIG  C16   22   4.418   3.901   5.372
    1  LIG  C17   23   4.366   3.963   5.501
    1  LIG  C18   24   4.128   3.935   5.434
    1  LIG  C19   25   4.181   4.044   5.642
    1  LIG  C20   26   4.008   4.018   5.482
    1  LIG  C21   27   4.030   4.020   5.632
    1  LIG  C22   28   4.303   3.468   4.713
    1  LIG  C23   29   4.358   3.222   4.699
    1  LIG  C24   30   4.183   3.320   4.557
    1  LIG  C25   31   4.417   3.163   4.570
    1  LIG  C26   32   4.250   3.255   4.437
    1  LIG    O   33   3.995   3.490   4.789
    1  LIG   O1   34   3.915   3.502   5.011
    1  LIG   O2   35   4.448   4.008   5.581
    1  LIG   O3   36   4.244   3.561   4.662
    1  LIG   O4   37   4.315   3.135   4.475
    1  LIG    F   38   3.955   4.116   5.696
    1  LIG   F1   39   3.999   3.895   5.683
    1  LIG    S   40   4.038   3.541   4.928
    1  LIG    H   41   4.571   3.600   4.800
    1  LIG   H1   42   4.448   3.409   4.846
    1  LIG   H2   43   4.357   3.474   5.048
    1  LIG   H3   44   4.288   3.702   5.081
    1  LIG   H4   45   4.225   3.730   4.797
    1  LIG   H5   46   4.165   3.960   4.836
    1  LIG   H6   47   4.327   3.933   4.901
    1  LIG   H7   48   4.189   4.072   5.051
    1  LIG   H8   49   4.241   3.922   5.125
    1  LIG   H9   50   3.971   3.973   5.001
    1  LIG  H10   51   4.005   3.962   5.173
    1  LIG  H11   52   3.913   3.751   5.087
    1  LIG  H12   53   4.077   3.731   5.145
    1  LIG  H13   54   3.994   3.766   4.858
    1  LIG  H14   55   4.167   3.436   5.099
    1  LIG  H15   56   4.183   3.352   4.946
    1  LIG  H16   57   4.550   3.613   5.080
    1  LIG  H17   58   4.697   3.833   4.933
    1  LIG  H18   59   4.726   3.660   4.921
    1  LIG  H19   60   4.893   3.772   5.066
    1  LIG  H20   61   4.797   3.653   5.153
    1  LIG  H21   62   4.820   3.855   5.288
    1  LIG  H22   63   4.753   3.951   5.158
    1  LIG  H23   64   4.525   3.918   5.092
    1  LIG  H24   65   4.423   3.806   5.181
    1  LIG  H25   66   4.603   4.007   5.353
    1  LIG  H26   67   4.612   3.868   5.458
    1  LIG  H27   68   4.385   3.799   5.367
    1  LIG  H28   69   4.379   3.956   5.289
    1  LIG  H29   70   4.108   3.831   5.441
    1  LIG  H30   71   4.153   3.952   5.331
    1  LIG  H31   72   4.203   4.148   5.639
    1  LIG  H32   73   4.223   4.008   5.734
    1  LIG  H33   74   3.916   3.970   5.456
    1  LIG  H34   75   4.002   4.115   5.437
    1  LIG  H35   76   4.292   3.151   4.745
    1  LIG  H36   77   4.435   3.246   4.769
    1  LIG  H37   78   4.139   3.413   4.529
    1  LIG  H38   79   4.105   3.256   4.594
    1  LIG  H39   80   4.468   3.072   4.594
    1  LIG  H40   81   4.485   3.234   4.527
    1  LIG  H41   82   4.323   3.323   4.397
    1  LIG  H42   83   4.176   3.233   4.363
   19.59400    21.53400    27.42400
