; ligand_gaff_GMX.itp created by acpype (v: 2023.10.27) on Thu Mar 19 07:55:00 2026

[ atomtypes ]
;name   bond_type     mass     charge   ptype   sigma         epsilon       Amb
 n3       n3          0.00000  0.00000   A     3.25000e-01   7.11280e-01 ; 1.82  0.1700
 n        n           0.00000  0.00000   A     3.25000e-01   7.11280e-01 ; 1.82  0.1700
 c3       c3          0.00000  0.00000   A     3.39967e-01   4.57730e-01 ; 1.91  0.1094
 c        c           0.00000  0.00000   A     3.39967e-01   3.59824e-01 ; 1.91  0.0860
 o        o           0.00000  0.00000   A     2.95992e-01   8.78640e-01 ; 1.66  0.2100
 os       os          0.00000  0.00000   A     3.00001e-01   7.11280e-01 ; 1.68  0.1700
 f        f           0.00000  0.00000   A     3.11815e-01   2.55224e-01 ; 1.75  0.0610
 s6       s6          0.00000  0.00000   A     3.56359e-01   1.04600e+00 ; 2.00  0.2500
 hn       hn          0.00000  0.00000   A     1.06908e-01   6.56888e-02 ; 0.60  0.0157
 h1       h1          0.00000  0.00000   A     2.47135e-01   6.56888e-02 ; 1.39  0.0157
 hc       hc          0.00000  0.00000   A     2.64953e-01   6.56888e-02 ; 1.49  0.0157

[ moleculetype ]
;name            nrexcl
 ligand_gaff      3

[ atoms ]
;   nr  type  resi  res  atom  cgnr     charge      mass       ; qtot   bond_type
     1   n3     1   LIG     N    1    -0.441400     14.01000 ; qtot -0.441
     2   n3     1   LIG    N1    2    -0.527000     14.01000 ; qtot -0.968
     3   n3     1   LIG    N2    3    -0.739600     14.01000 ; qtot -1.708
     4    n     1   LIG    N3    4    -0.476800     14.01000 ; qtot -2.185
     5    n     1   LIG    N4    5    -0.445800     14.01000 ; qtot -2.631
     6   c3     1   LIG     C    6     0.056500     12.01000 ; qtot -2.574
     7   c3     1   LIG    C1    7    -0.036700     12.01000 ; qtot -2.611
     8   c3     1   LIG    C2    8     0.148500     12.01000 ; qtot -2.462
     9   c3     1   LIG    C3    9    -0.021700     12.01000 ; qtot -2.484
    10   c3     1   LIG    C4   10    -0.068400     12.01000 ; qtot -2.552
    11   c3     1   LIG    C5   11    -0.082400     12.01000 ; qtot -2.635
    12   c3     1   LIG    C6   12    -0.072400     12.01000 ; qtot -2.707
    13   c3     1   LIG    C7   13    -0.050400     12.01000 ; qtot -2.758
    14   c3     1   LIG    C8   14    -0.282900     12.01000 ; qtot -3.041
    15   c3     1   LIG    C9   15    -0.302600     12.01000 ; qtot -3.343
    16   c3     1   LIG   C10   16     0.123500     12.01000 ; qtot -3.220
    17   c3     1   LIG   C11   17    -0.089400     12.01000 ; qtot -3.309
    18   c3     1   LIG   C12   18    -0.076400     12.01000 ; qtot -3.385
    19   c3     1   LIG   C13   19     0.168800     12.01000 ; qtot -3.217
    20   c3     1   LIG   C14   20     0.171800     12.01000 ; qtot -3.045
    21   c3     1   LIG   C15   21     0.174800     12.01000 ; qtot -2.870
    22   c3     1   LIG   C16   22    -0.148400     12.01000 ; qtot -3.018
    23    c     1   LIG   C17   23     0.662100     12.01000 ; qtot -2.356
    24   c3     1   LIG   C18   24     0.092000     12.01000 ; qtot -2.264
    25   c3     1   LIG   C19   25     0.049000     12.01000 ; qtot -2.215
    26   c3     1   LIG   C20   26    -0.139400     12.01000 ; qtot -2.355
    27   c3     1   LIG   C21   27     0.396600     12.01000 ; qtot -1.958
    28    c     1   LIG   C22   28     0.639100     12.01000 ; qtot -1.319
    29   c3     1   LIG   C23   29     0.027000     12.01000 ; qtot -1.292
    30   c3     1   LIG   C24   30     0.027000     12.01000 ; qtot -1.265
    31   c3     1   LIG   C25   31     0.097400     12.01000 ; qtot -1.168
    32   c3     1   LIG   C26   32     0.097400     12.01000 ; qtot -1.070
    33    o     1   LIG     O   33    -0.646800     16.00000 ; qtot -1.717
    34    o     1   LIG    O1   34    -0.646800     16.00000 ; qtot -2.364
    35    o     1   LIG    O2   35    -0.595100     16.00000 ; qtot -2.959
    36    o     1   LIG    O3   36    -0.526100     16.00000 ; qtot -3.485
    37   os     1   LIG    O4   37    -0.413600     16.00000 ; qtot -3.899
    38    f     1   LIG     F   38    -0.232300     19.00000 ; qtot -4.131
    39    f     1   LIG    F1   39    -0.232300     19.00000 ; qtot -4.363
    40   s6     1   LIG     S   40     1.309000     32.06000 ; qtot -3.054
    41   hn     1   LIG     H   41     0.356800      1.00800 ; qtot -2.697
    42   h1     1   LIG    H1   42     0.058700      1.00800 ; qtot -2.639
    43   hc     1   LIG    H2   43     0.053700      1.00800 ; qtot -2.585
    44   h1     1   LIG    H3   44     0.070700      1.00800 ; qtot -2.514
    45   hc     1   LIG    H4   45     0.113700      1.00800 ; qtot -2.401
    46   hc     1   LIG    H5   46     0.057200      1.00800 ; qtot -2.343
    47   hc     1   LIG    H6   47     0.057200      1.00800 ; qtot -2.286
    48   hc     1   LIG    H7   48     0.035700      1.00800 ; qtot -2.251
    49   hc     1   LIG    H8   49     0.035700      1.00800 ; qtot -2.215
    50   hc     1   LIG    H9   50     0.043700      1.00800 ; qtot -2.171
    51   hc     1   LIG   H10   51     0.043700      1.00800 ; qtot -2.127
    52   hc     1   LIG   H11   52     0.057200      1.00800 ; qtot -2.070
    53   hc     1   LIG   H12   53     0.057200      1.00800 ; qtot -2.013
    54   h1     1   LIG   H13   54     0.126700      1.00800 ; qtot -1.886
    55   h1     1   LIG   H14   55     0.127700      1.00800 ; qtot -1.759
    56   h1     1   LIG   H15   56     0.127700      1.00800 ; qtot -1.631
    57   h1     1   LIG   H16   57     0.044700      1.00800 ; qtot -1.586
    58   hc     1   LIG   H17   58     0.046200      1.00800 ; qtot -1.540
    59   hc     1   LIG   H18   59     0.046200      1.00800 ; qtot -1.494
    60   hc     1   LIG   H19   60     0.051200      1.00800 ; qtot -1.443
    61   hc     1   LIG   H20   61     0.051200      1.00800 ; qtot -1.391
    62   h1     1   LIG   H21   62     0.038200      1.00800 ; qtot -1.353
    63   h1     1   LIG   H22   63     0.038200      1.00800 ; qtot -1.315
    64   h1     1   LIG   H23   64     0.045700      1.00800 ; qtot -1.269
    65   h1     1   LIG   H24   65     0.045700      1.00800 ; qtot -1.224
    66   h1     1   LIG   H25   66     0.055200      1.00800 ; qtot -1.168
    67   h1     1   LIG   H26   67     0.055200      1.00800 ; qtot -1.113
    68   hc     1   LIG   H27   68     0.072200      1.00800 ; qtot -1.041
    69   hc     1   LIG   H28   69     0.072200      1.00800 ; qtot -0.969
    70   h1     1   LIG   H29   70     0.050700      1.00800 ; qtot -0.918
    71   h1     1   LIG   H30   71     0.050700      1.00800 ; qtot -0.867
    72   h1     1   LIG   H31   72     0.087200      1.00800 ; qtot -0.780
    73   h1     1   LIG   H32   73     0.087200      1.00800 ; qtot -0.693
    74   hc     1   LIG   H33   74     0.083700      1.00800 ; qtot -0.609
    75   hc     1   LIG   H34   75     0.083700      1.00800 ; qtot -0.526
    76   h1     1   LIG   H35   76     0.072200      1.00800 ; qtot -0.453
    77   h1     1   LIG   H36   77     0.072200      1.00800 ; qtot -0.381
    78   h1     1   LIG   H37   78     0.072200      1.00800 ; qtot -0.309
    79   h1     1   LIG   H38   79     0.072200      1.00800 ; qtot -0.237
    80   h1     1   LIG   H39   80     0.059200      1.00800 ; qtot -0.178
    81   h1     1   LIG   H40   81     0.059200      1.00800 ; qtot -0.118
    82   h1     1   LIG   H41   82     0.059200      1.00800 ; qtot -0.059
    83   h1     1   LIG   H42   83     0.059200      1.00800 ; qtot -0.000

[ bonds ]
;   ai     aj funct   r             k
     1      2   1    1.4415e-01    3.3372e+05 ;      N - N1    
     1      8   1    1.4647e-01    2.7271e+05 ;      N - C2    
     1     16   1    1.4647e-01    2.7271e+05 ;      N - C10   
     2      6   1    1.4647e-01    2.7271e+05 ;     N1 - C     
     2     41   1    1.0190e-01    3.2836e+05 ;     N1 - H     
     3     19   1    1.4647e-01    2.7271e+05 ;     N2 - C13   
     3     20   1    1.4647e-01    2.7271e+05 ;     N2 - C14   
     3     21   1    1.4647e-01    2.7271e+05 ;     N2 - C15   
     4     23   1    1.3789e-01    3.5782e+05 ;     N3 - C17   
     4     24   1    1.4619e-01    2.7506e+05 ;     N3 - C18   
     4     25   1    1.4619e-01    2.7506e+05 ;     N3 - C19   
     5     28   1    1.3789e-01    3.5782e+05 ;     N4 - C22   
     5     29   1    1.4619e-01    2.7506e+05 ;     N4 - C23   
     5     30   1    1.4619e-01    2.7506e+05 ;     N4 - C24   
     6      7   1    1.5375e-01    2.5179e+05 ;      C - C1    
     6     28   1    1.5241e-01    2.6192e+05 ;      C - C22   
     6     42   1    1.0969e-01    2.7665e+05 ;      C - H1    
     7      8   1    1.5375e-01    2.5179e+05 ;     C1 - C2    
     7     15   1    1.5375e-01    2.5179e+05 ;     C1 - C9    
     7     43   1    1.0969e-01    2.7665e+05 ;     C1 - H2    
     8      9   1    1.5375e-01    2.5179e+05 ;     C2 - C3    
     8     44   1    1.0969e-01    2.7665e+05 ;     C2 - H3    
     9     10   1    1.5375e-01    2.5179e+05 ;     C3 - C4    
     9     14   1    1.5375e-01    2.5179e+05 ;     C3 - C8    
     9     45   1    1.0969e-01    2.7665e+05 ;     C3 - H4    
    10     11   1    1.5375e-01    2.5179e+05 ;     C4 - C5    
    10     46   1    1.0969e-01    2.7665e+05 ;     C4 - H5    
    10     47   1    1.0969e-01    2.7665e+05 ;     C4 - H6    
    11     12   1    1.5375e-01    2.5179e+05 ;     C5 - C6    
    11     48   1    1.0969e-01    2.7665e+05 ;     C5 - H7    
    11     49   1    1.0969e-01    2.7665e+05 ;     C5 - H8    
    12     13   1    1.5375e-01    2.5179e+05 ;     C6 - C7    
    12     50   1    1.0969e-01    2.7665e+05 ;     C6 - H9    
    12     51   1    1.0969e-01    2.7665e+05 ;     C6 - H10   
    13     14   1    1.5375e-01    2.5179e+05 ;     C7 - C8    
    13     52   1    1.0969e-01    2.7665e+05 ;     C7 - H11   
    13     53   1    1.0969e-01    2.7665e+05 ;     C7 - H12   
    14     40   1    1.8075e-01    1.9539e+05 ;     C8 - S     
    14     54   1    1.0969e-01    2.7665e+05 ;     C8 - H13   
    15     40   1    1.8075e-01    1.9539e+05 ;     C9 - S     
    15     55   1    1.0969e-01    2.7665e+05 ;     C9 - H14   
    15     56   1    1.0969e-01    2.7665e+05 ;     C9 - H15   
    16     17   1    1.5375e-01    2.5179e+05 ;    C10 - C11   
    16     20   1    1.5375e-01    2.5179e+05 ;    C10 - C14   
    16     57   1    1.0969e-01    2.7665e+05 ;    C10 - H16   
    17     18   1    1.5375e-01    2.5179e+05 ;    C11 - C12   
    17     58   1    1.0969e-01    2.7665e+05 ;    C11 - H17   
    17     59   1    1.0969e-01    2.7665e+05 ;    C11 - H18   
    18     19   1    1.5375e-01    2.5179e+05 ;    C12 - C13   
    18     60   1    1.0969e-01    2.7665e+05 ;    C12 - H19   
    18     61   1    1.0969e-01    2.7665e+05 ;    C12 - H20   
    19     62   1    1.0969e-01    2.7665e+05 ;    C13 - H21   
    19     63   1    1.0969e-01    2.7665e+05 ;    C13 - H22   
    20     64   1    1.0969e-01    2.7665e+05 ;    C14 - H23   
    20     65   1    1.0969e-01    2.7665e+05 ;    C14 - H24   
    21     22   1    1.5375e-01    2.5179e+05 ;    C15 - C16   
    21     66   1    1.0969e-01    2.7665e+05 ;    C15 - H25   
    21     67   1    1.0969e-01    2.7665e+05 ;    C15 - H26   
    22     23   1    1.5241e-01    2.6192e+05 ;    C16 - C17   
    22     68   1    1.0969e-01    2.7665e+05 ;    C16 - H27   
    22     69   1    1.0969e-01    2.7665e+05 ;    C16 - H28   
    23     35   1    1.2183e-01    5.3363e+05 ;    C17 - O2    
    24     26   1    1.5375e-01    2.5179e+05 ;    C18 - C20   
    24     70   1    1.0969e-01    2.7665e+05 ;    C18 - H29   
    24     71   1    1.0969e-01    2.7665e+05 ;    C18 - H30   
    25     27   1    1.5375e-01    2.5179e+05 ;    C19 - C21   
    25     72   1    1.0969e-01    2.7665e+05 ;    C19 - H31   
    25     73   1    1.0969e-01    2.7665e+05 ;    C19 - H32   
    26     27   1    1.5375e-01    2.5179e+05 ;    C20 - C21   
    26     74   1    1.0969e-01    2.7665e+05 ;    C20 - H33   
    26     75   1    1.0969e-01    2.7665e+05 ;    C20 - H34   
    27     38   1    1.3497e-01    2.9865e+05 ;    C21 - F     
    27     39   1    1.3497e-01    2.9865e+05 ;    C21 - F1    
    28     36   1    1.2183e-01    5.3363e+05 ;    C22 - O3    
    29     31   1    1.5375e-01    2.5179e+05 ;    C23 - C25   
    29     76   1    1.0969e-01    2.7665e+05 ;    C23 - H35   
    29     77   1    1.0969e-01    2.7665e+05 ;    C23 - H36   
    30     32   1    1.5375e-01    2.5179e+05 ;    C24 - C26   
    30     78   1    1.0969e-01    2.7665e+05 ;    C24 - H37   
    30     79   1    1.0969e-01    2.7665e+05 ;    C24 - H38   
    31     37   1    1.4316e-01    2.5824e+05 ;    C25 - O4    
    31     80   1    1.0969e-01    2.7665e+05 ;    C25 - H39   
    31     81   1    1.0969e-01    2.7665e+05 ;    C25 - H40   
    32     37   1    1.4316e-01    2.5824e+05 ;    C26 - O4    
    32     82   1    1.0969e-01    2.7665e+05 ;    C26 - H41   
    32     83   1    1.0969e-01    2.7665e+05 ;    C26 - H42   
    33     40   1    1.4533e-01    4.2903e+05 ;      O - S     
    34     40   1    1.4533e-01    4.2903e+05 ;     O1 - S     

[ pairs ]
;   ai     aj    funct
     1      3      1 ;      N - N2    
     1     10      1 ;      N - C4    
     1     14      1 ;      N - C8    
     1     15      1 ;      N - C9    
     1     18      1 ;      N - C12   
     1     28      1 ;      N - C22   
     1     42      1 ;      N - H1    
     1     43      1 ;      N - H2    
     1     45      1 ;      N - H4    
     1     58      1 ;      N - H17   
     1     59      1 ;      N - H18   
     1     64      1 ;      N - H23   
     1     65      1 ;      N - H24   
     2      5      1 ;     N1 - N4    
     2      9      1 ;     N1 - C3    
     2     15      1 ;     N1 - C9    
     2     17      1 ;     N1 - C11   
     2     20      1 ;     N1 - C14   
     2     36      1 ;     N1 - O3    
     2     43      1 ;     N1 - H2    
     2     44      1 ;     N1 - H3    
     2     57      1 ;     N1 - H16   
     3     17      1 ;     N2 - C11   
     3     23      1 ;     N2 - C17   
     3     57      1 ;     N2 - H16   
     3     60      1 ;     N2 - H19   
     3     61      1 ;     N2 - H20   
     3     68      1 ;     N2 - H27   
     3     69      1 ;     N2 - H28   
     4     21      1 ;     N3 - C15   
     4     38      1 ;     N3 - F     
     4     39      1 ;     N3 - F1    
     4     68      1 ;     N3 - H27   
     4     69      1 ;     N3 - H28   
     4     74      1 ;     N3 - H33   
     4     75      1 ;     N3 - H34   
     5      7      1 ;     N4 - C1    
     5     37      1 ;     N4 - O4    
     5     42      1 ;     N4 - H1    
     5     80      1 ;     N4 - H39   
     5     81      1 ;     N4 - H40   
     5     82      1 ;     N4 - H41   
     5     83      1 ;     N4 - H42   
     6      9      1 ;      C - C3    
     6     29      1 ;      C - C23   
     6     30      1 ;      C - C24   
     6     40      1 ;      C - S     
     6     44      1 ;      C - H3    
     6     55      1 ;      C - H14   
     6     56      1 ;      C - H15   
     7     10      1 ;     C1 - C4    
     7     14      1 ;     C1 - C8    
     7     33      1 ;     C1 - O     
     7     34      1 ;     C1 - O1    
     7     36      1 ;     C1 - O3    
     7     41      1 ;     C1 - H     
     7     45      1 ;     C1 - H4    
     8     11      1 ;     C2 - C5    
     8     13      1 ;     C2 - C7    
     8     17      1 ;     C2 - C11   
     8     20      1 ;     C2 - C14   
     8     28      1 ;     C2 - C22   
     8     40      1 ;     C2 - S     
     8     41      1 ;     C2 - H     
     8     42      1 ;     C2 - H1    
     8     46      1 ;     C2 - H5    
     8     47      1 ;     C2 - H6    
     8     54      1 ;     C2 - H13   
     8     55      1 ;     C2 - H14   
     8     56      1 ;     C2 - H15   
     8     57      1 ;     C2 - H16   
     9     12      1 ;     C3 - C6    
     9     15      1 ;     C3 - C9    
     9     33      1 ;     C3 - O     
     9     34      1 ;     C3 - O1    
     9     43      1 ;     C3 - H2    
     9     48      1 ;     C3 - H7    
     9     49      1 ;     C3 - H8    
     9     52      1 ;     C3 - H11   
     9     53      1 ;     C3 - H12   
    10     13      1 ;     C4 - C7    
    10     40      1 ;     C4 - S     
    10     44      1 ;     C4 - H3    
    10     50      1 ;     C4 - H9    
    10     51      1 ;     C4 - H10   
    10     54      1 ;     C4 - H13   
    11     14      1 ;     C5 - C8    
    11     45      1 ;     C5 - H4    
    11     52      1 ;     C5 - H11   
    11     53      1 ;     C5 - H12   
    12     40      1 ;     C6 - S     
    12     46      1 ;     C6 - H5    
    12     47      1 ;     C6 - H6    
    12     54      1 ;     C6 - H13   
    13     15      1 ;     C7 - C9    
    13     33      1 ;     C7 - O     
    13     34      1 ;     C7 - O1    
    13     45      1 ;     C7 - H4    
    13     48      1 ;     C7 - H7    
    13     49      1 ;     C7 - H8    
    14     44      1 ;     C8 - H3    
    14     46      1 ;     C8 - H5    
    14     47      1 ;     C8 - H6    
    14     50      1 ;     C8 - H9    
    14     51      1 ;     C8 - H10   
    14     55      1 ;     C8 - H14   
    14     56      1 ;     C8 - H15   
    15     28      1 ;     C9 - C22   
    15     42      1 ;     C9 - H1    
    15     44      1 ;     C9 - H3    
    15     54      1 ;     C9 - H13   
    16      6      1 ;    C10 - C     
    16      7      1 ;    C10 - C1    
    16      9      1 ;    C10 - C3    
    16     19      1 ;    C10 - C13   
    16     21      1 ;    C10 - C15   
    16     41      1 ;    C10 - H     
    16     44      1 ;    C10 - H3    
    16     60      1 ;    C10 - H19   
    16     61      1 ;    C10 - H20   
    17     62      1 ;    C11 - H21   
    17     63      1 ;    C11 - H22   
    17     64      1 ;    C11 - H23   
    17     65      1 ;    C11 - H24   
    18     20      1 ;    C12 - C14   
    18     21      1 ;    C12 - C15   
    18     57      1 ;    C12 - H16   
    19     22      1 ;    C13 - C16   
    19     58      1 ;    C13 - H17   
    19     59      1 ;    C13 - H18   
    19     64      1 ;    C13 - H23   
    19     65      1 ;    C13 - H24   
    19     66      1 ;    C13 - H25   
    19     67      1 ;    C13 - H26   
    20     22      1 ;    C14 - C16   
    20     58      1 ;    C14 - H17   
    20     59      1 ;    C14 - H18   
    20     62      1 ;    C14 - H21   
    20     63      1 ;    C14 - H22   
    20     66      1 ;    C14 - H25   
    20     67      1 ;    C14 - H26   
    21     35      1 ;    C15 - O2    
    21     62      1 ;    C15 - H21   
    21     63      1 ;    C15 - H22   
    21     64      1 ;    C15 - H23   
    21     65      1 ;    C15 - H24   
    22     24      1 ;    C16 - C18   
    22     25      1 ;    C16 - C19   
    23     26      1 ;    C17 - C20   
    23     27      1 ;    C17 - C21   
    23     66      1 ;    C17 - H25   
    23     67      1 ;    C17 - H26   
    23     70      1 ;    C17 - H29   
    23     71      1 ;    C17 - H30   
    23     72      1 ;    C17 - H31   
    23     73      1 ;    C17 - H32   
    24     35      1 ;    C18 - O2    
    24     38      1 ;    C18 - F     
    24     39      1 ;    C18 - F1    
    24     72      1 ;    C18 - H31   
    24     73      1 ;    C18 - H32   
    25     35      1 ;    C19 - O2    
    25     70      1 ;    C19 - H29   
    25     71      1 ;    C19 - H30   
    25     74      1 ;    C19 - H33   
    25     75      1 ;    C19 - H34   
    26     72      1 ;    C20 - H31   
    26     73      1 ;    C20 - H32   
    27     70      1 ;    C21 - H29   
    27     71      1 ;    C21 - H30   
    28     31      1 ;    C22 - C25   
    28     32      1 ;    C22 - C26   
    28     41      1 ;    C22 - H     
    28     43      1 ;    C22 - H2    
    28     76      1 ;    C22 - H35   
    28     77      1 ;    C22 - H36   
    28     78      1 ;    C22 - H37   
    28     79      1 ;    C22 - H38   
    29     32      1 ;    C23 - C26   
    29     36      1 ;    C23 - O3    
    29     78      1 ;    C23 - H37   
    29     79      1 ;    C23 - H38   
    30     31      1 ;    C24 - C25   
    30     36      1 ;    C24 - O3    
    30     76      1 ;    C24 - H35   
    30     77      1 ;    C24 - H36   
    31     82      1 ;    C25 - H41   
    31     83      1 ;    C25 - H42   
    32     80      1 ;    C26 - H39   
    32     81      1 ;    C26 - H40   
    33     54      1 ;      O - H13   
    33     55      1 ;      O - H14   
    33     56      1 ;      O - H15   
    34     54      1 ;     O1 - H13   
    34     55      1 ;     O1 - H14   
    34     56      1 ;     O1 - H15   
    35     68      1 ;     O2 - H27   
    35     69      1 ;     O2 - H28   
    36     42      1 ;     O3 - H1    
    37     76      1 ;     O4 - H35   
    37     77      1 ;     O4 - H36   
    37     78      1 ;     O4 - H37   
    37     79      1 ;     O4 - H38   
    38     72      1 ;      F - H31   
    38     73      1 ;      F - H32   
    38     74      1 ;      F - H33   
    38     75      1 ;      F - H34   
    39     72      1 ;     F1 - H31   
    39     73      1 ;     F1 - H32   
    39     74      1 ;     F1 - H33   
    39     75      1 ;     F1 - H34   
    40     43      1 ;      S - H2    
    40     45      1 ;      S - H4    
    40     52      1 ;      S - H11   
    40     53      1 ;      S - H12   
    41     42      1 ;      H - H1    
    42     43      1 ;     H1 - H2    
    43     44      1 ;     H2 - H3    
    43     55      1 ;     H2 - H14   
    43     56      1 ;     H2 - H15   
    44     45      1 ;     H3 - H4    
    45     46      1 ;     H4 - H5    
    45     47      1 ;     H4 - H6    
    45     54      1 ;     H4 - H13   
    46     48      1 ;     H5 - H7    
    46     49      1 ;     H5 - H8    
    47     48      1 ;     H6 - H7    
    47     49      1 ;     H6 - H8    
    48     50      1 ;     H7 - H9    
    48     51      1 ;     H7 - H10   
    49     50      1 ;     H8 - H9    
    49     51      1 ;     H8 - H10   
    50     52      1 ;     H9 - H11   
    50     53      1 ;     H9 - H12   
    51     52      1 ;    H10 - H11   
    51     53      1 ;    H10 - H12   
    52     54      1 ;    H11 - H13   
    53     54      1 ;    H12 - H13   
    57     58      1 ;    H16 - H17   
    57     59      1 ;    H16 - H18   
    57     64      1 ;    H16 - H23   
    57     65      1 ;    H16 - H24   
    58     60      1 ;    H17 - H19   
    58     61      1 ;    H17 - H20   
    59     60      1 ;    H18 - H19   
    59     61      1 ;    H18 - H20   
    60     62      1 ;    H19 - H21   
    60     63      1 ;    H19 - H22   
    61     62      1 ;    H20 - H21   
    61     63      1 ;    H20 - H22   
    66     68      1 ;    H25 - H27   
    66     69      1 ;    H25 - H28   
    67     68      1 ;    H26 - H27   
    67     69      1 ;    H26 - H28   
    70     74      1 ;    H29 - H33   
    70     75      1 ;    H29 - H34   
    71     74      1 ;    H30 - H33   
    71     75      1 ;    H30 - H34   
    76     80      1 ;    H35 - H39   
    76     81      1 ;    H35 - H40   
    77     80      1 ;    H36 - H39   
    77     81      1 ;    H36 - H40   
    78     82      1 ;    H37 - H41   
    78     83      1 ;    H37 - H42   
    79     82      1 ;    H38 - H41   
    79     83      1 ;    H38 - H42   

[ angles ]
;   ai     aj     ak    funct   theta         cth
     1      2      6      1    1.1080e+02    5.5564e+02 ;      N - N1     - C     
     1      2     41      1    1.0768e+02    4.1589e+02 ;      N - N1     - H     
     1      8      7      1    1.1104e+02    5.5229e+02 ;      N - C2     - C1    
     1      8      9      1    1.1104e+02    5.5229e+02 ;      N - C2     - C3    
     1      8     44      1    1.0988e+02    4.1422e+02 ;      N - C2     - H3    
     1     16     17      1    1.1104e+02    5.5229e+02 ;      N - C10    - C11   
     1     16     20      1    1.1104e+02    5.5229e+02 ;      N - C10    - C14   
     1     16     57      1    1.0988e+02    4.1422e+02 ;      N - C10    - H16   
     2      1      8      1    1.1080e+02    5.5564e+02 ;     N1 - N      - C2    
     2      1     16      1    1.1080e+02    5.5564e+02 ;     N1 - N      - C10   
     2      6      7      1    1.1104e+02    5.5229e+02 ;     N1 - C      - C1    
     2      6     28      1    1.1114e+02    5.5480e+02 ;     N1 - C      - C22   
     2      6     42      1    1.0988e+02    4.1422e+02 ;     N1 - C      - H1    
     3     19     18      1    1.1104e+02    5.5229e+02 ;     N2 - C13    - C12   
     3     19     62      1    1.0988e+02    4.1422e+02 ;     N2 - C13    - H21   
     3     19     63      1    1.0988e+02    4.1422e+02 ;     N2 - C13    - H22   
     3     20     16      1    1.1104e+02    5.5229e+02 ;     N2 - C14    - C10   
     3     20     64      1    1.0988e+02    4.1422e+02 ;     N2 - C14    - H23   
     3     20     65      1    1.0988e+02    4.1422e+02 ;     N2 - C14    - H24   
     3     21     22      1    1.1104e+02    5.5229e+02 ;     N2 - C15    - C16   
     3     21     66      1    1.0988e+02    4.1422e+02 ;     N2 - C15    - H25   
     3     21     67      1    1.0988e+02    4.1422e+02 ;     N2 - C15    - H26   
     4     23     22      1    1.1518e+02    5.5898e+02 ;     N3 - C17    - C16   
     4     23     35      1    1.2305e+02    6.2091e+02 ;     N3 - C17    - O2    
     4     24     26      1    1.1161e+02    5.5145e+02 ;     N3 - C18    - C20   
     4     24     70      1    1.0888e+02    4.1673e+02 ;     N3 - C18    - H29   
     4     24     71      1    1.0888e+02    4.1673e+02 ;     N3 - C18    - H30   
     4     25     27      1    1.1161e+02    5.5145e+02 ;     N3 - C19    - C21   
     4     25     72      1    1.0888e+02    4.1673e+02 ;     N3 - C19    - H31   
     4     25     73      1    1.0888e+02    4.1673e+02 ;     N3 - C19    - H32   
     5     28      6      1    1.1518e+02    5.5898e+02 ;     N4 - C22    - C     
     5     28     36      1    1.2305e+02    6.2091e+02 ;     N4 - C22    - O3    
     5     29     31      1    1.1161e+02    5.5145e+02 ;     N4 - C23    - C25   
     5     29     76      1    1.0888e+02    4.1673e+02 ;     N4 - C23    - H35   
     5     29     77      1    1.0888e+02    4.1673e+02 ;     N4 - C23    - H36   
     5     30     32      1    1.1161e+02    5.5145e+02 ;     N4 - C24    - C26   
     5     30     78      1    1.0888e+02    4.1673e+02 ;     N4 - C24    - H37   
     5     30     79      1    1.0888e+02    4.1673e+02 ;     N4 - C24    - H38   
     6      2     41      1    1.0929e+02    3.9664e+02 ;      C - N1     - H     
     6      7      8      1    1.1151e+02    5.2635e+02 ;      C - C1     - C2    
     6      7     15      1    1.1151e+02    5.2635e+02 ;      C - C1     - C9    
     6      7     43      1    1.0980e+02    3.8744e+02 ;      C - C1     - H2    
     6     28     36      1    1.2320e+02    5.6400e+02 ;      C - C22    - O3    
     7      6     28      1    1.1104e+02    5.2969e+02 ;     C1 - C      - C22   
     7      6     42      1    1.0956e+02    3.8828e+02 ;     C1 - C      - H1    
     7      8      9      1    1.1151e+02    5.2635e+02 ;     C1 - C2     - C3    
     7      8     44      1    1.0956e+02    3.8828e+02 ;     C1 - C2     - H3    
     7     15     40      1    1.1022e+02    5.1965e+02 ;     C1 - C9     - S     
     7     15     55      1    1.0956e+02    3.8828e+02 ;     C1 - C9     - H14   
     7     15     56      1    1.0956e+02    3.8828e+02 ;     C1 - C9     - H15   
     8      1     16      1    1.1235e+02    5.3388e+02 ;     C2 - N      - C10   
     8      7     15      1    1.1151e+02    5.2635e+02 ;     C2 - C1     - C9    
     8      7     43      1    1.0980e+02    3.8744e+02 ;     C2 - C1     - H2    
     8      9     10      1    1.1151e+02    5.2635e+02 ;     C2 - C3     - C4    
     8      9     14      1    1.1151e+02    5.2635e+02 ;     C2 - C3     - C8    
     8      9     45      1    1.0980e+02    3.8744e+02 ;     C2 - C3     - H4    
     9      8     44      1    1.0956e+02    3.8828e+02 ;     C3 - C2     - H3    
     9     10     11      1    1.1151e+02    5.2635e+02 ;     C3 - C4     - C5    
     9     10     46      1    1.0980e+02    3.8744e+02 ;     C3 - C4     - H5    
     9     10     47      1    1.0980e+02    3.8744e+02 ;     C3 - C4     - H6    
     9     14     13      1    1.1151e+02    5.2635e+02 ;     C3 - C8     - C7    
     9     14     40      1    1.1022e+02    5.1965e+02 ;     C3 - C8     - S     
     9     14     54      1    1.0956e+02    3.8828e+02 ;     C3 - C8     - H13   
    10      9     14      1    1.1151e+02    5.2635e+02 ;     C4 - C3     - C8    
    10      9     45      1    1.0980e+02    3.8744e+02 ;     C4 - C3     - H4    
    10     11     12      1    1.1151e+02    5.2635e+02 ;     C4 - C5     - C6    
    10     11     48      1    1.0980e+02    3.8744e+02 ;     C4 - C5     - H7    
    10     11     49      1    1.0980e+02    3.8744e+02 ;     C4 - C5     - H8    
    11     10     46      1    1.0980e+02    3.8744e+02 ;     C5 - C4     - H5    
    11     10     47      1    1.0980e+02    3.8744e+02 ;     C5 - C4     - H6    
    11     12     13      1    1.1151e+02    5.2635e+02 ;     C5 - C6     - C7    
    11     12     50      1    1.0980e+02    3.8744e+02 ;     C5 - C6     - H9    
    11     12     51      1    1.0980e+02    3.8744e+02 ;     C5 - C6     - H10   
    12     11     48      1    1.0980e+02    3.8744e+02 ;     C6 - C5     - H7    
    12     11     49      1    1.0980e+02    3.8744e+02 ;     C6 - C5     - H8    
    12     13     14      1    1.1151e+02    5.2635e+02 ;     C6 - C7     - C8    
    12     13     52      1    1.0980e+02    3.8744e+02 ;     C6 - C7     - H11   
    12     13     53      1    1.0980e+02    3.8744e+02 ;     C6 - C7     - H12   
    13     12     50      1    1.0980e+02    3.8744e+02 ;     C7 - C6     - H9    
    13     12     51      1    1.0980e+02    3.8744e+02 ;     C7 - C6     - H10   
    13     14     40      1    1.1022e+02    5.1965e+02 ;     C7 - C8     - S     
    13     14     54      1    1.0956e+02    3.8828e+02 ;     C7 - C8     - H13   
    14      9     45      1    1.0980e+02    3.8744e+02 ;     C8 - C3     - H4    
    14     13     52      1    1.0980e+02    3.8744e+02 ;     C8 - C7     - H11   
    14     13     53      1    1.0980e+02    3.8744e+02 ;     C8 - C7     - H12   
    14     40     15      1    1.0383e+02    5.0124e+02 ;     C8 - S      - C9    
    14     40     33      1    1.0861e+02    5.4727e+02 ;     C8 - S      - O     
    14     40     34      1    1.0861e+02    5.4727e+02 ;     C8 - S      - O1    
    15      7     43      1    1.0980e+02    3.8744e+02 ;     C9 - C1     - H2    
    15     40     33      1    1.0861e+02    5.4727e+02 ;     C9 - S      - O     
    15     40     34      1    1.0861e+02    5.4727e+02 ;     C9 - S      - O1    
    16     17     18      1    1.1151e+02    5.2635e+02 ;    C10 - C11    - C12   
    16     17     58      1    1.0980e+02    3.8744e+02 ;    C10 - C11    - H17   
    16     17     59      1    1.0980e+02    3.8744e+02 ;    C10 - C11    - H18   
    16     20     64      1    1.0956e+02    3.8828e+02 ;    C10 - C14    - H23   
    16     20     65      1    1.0956e+02    3.8828e+02 ;    C10 - C14    - H24   
    17     16     20      1    1.1151e+02    5.2635e+02 ;    C11 - C10    - C14   
    17     16     57      1    1.0956e+02    3.8828e+02 ;    C11 - C10    - H16   
    17     18     19      1    1.1151e+02    5.2635e+02 ;    C11 - C12    - C13   
    17     18     60      1    1.0980e+02    3.8744e+02 ;    C11 - C12    - H19   
    17     18     61      1    1.0980e+02    3.8744e+02 ;    C11 - C12    - H20   
    18     17     58      1    1.0980e+02    3.8744e+02 ;    C12 - C11    - H17   
    18     17     59      1    1.0980e+02    3.8744e+02 ;    C12 - C11    - H18   
    18     19     62      1    1.0956e+02    3.8828e+02 ;    C12 - C13    - H21   
    18     19     63      1    1.0956e+02    3.8828e+02 ;    C12 - C13    - H22   
    19      3     20      1    1.1235e+02    5.3388e+02 ;    C13 - N2     - C14   
    19      3     21      1    1.1235e+02    5.3388e+02 ;    C13 - N2     - C15   
    19     18     60      1    1.0980e+02    3.8744e+02 ;    C13 - C12    - H19   
    19     18     61      1    1.0980e+02    3.8744e+02 ;    C13 - C12    - H20   
    20      3     21      1    1.1235e+02    5.3388e+02 ;    C14 - N2     - C15   
    20     16     57      1    1.0956e+02    3.8828e+02 ;    C14 - C10    - H16   
    21     22     23      1    1.1104e+02    5.2969e+02 ;    C15 - C16    - C17   
    21     22     68      1    1.0980e+02    3.8744e+02 ;    C15 - C16    - H27   
    21     22     69      1    1.0980e+02    3.8744e+02 ;    C15 - C16    - H28   
    22     21     66      1    1.0956e+02    3.8828e+02 ;    C16 - C15    - H25   
    22     21     67      1    1.0956e+02    3.8828e+02 ;    C16 - C15    - H26   
    22     23     35      1    1.2320e+02    5.6400e+02 ;    C16 - C17    - O2    
    23      4     24      1    1.2069e+02    5.3053e+02 ;    C17 - N3     - C18   
    23      4     25      1    1.2069e+02    5.3053e+02 ;    C17 - N3     - C19   
    23     22     68      1    1.0877e+02    3.9246e+02 ;    C17 - C16    - H27   
    23     22     69      1    1.0877e+02    3.9246e+02 ;    C17 - C16    - H28   
    24      4     25      1    1.1564e+02    5.2718e+02 ;    C18 - N3     - C19   
    24     26     27      1    1.1151e+02    5.2635e+02 ;    C18 - C20    - C21   
    24     26     74      1    1.0980e+02    3.8744e+02 ;    C18 - C20    - H33   
    24     26     75      1    1.0980e+02    3.8744e+02 ;    C18 - C20    - H34   
    25     27     26      1    1.1151e+02    5.2635e+02 ;    C19 - C21    - C20   
    25     27     38      1    1.0924e+02    5.5312e+02 ;    C19 - C21    - F     
    25     27     39      1    1.0924e+02    5.5312e+02 ;    C19 - C21    - F1    
    26     24     70      1    1.0956e+02    3.8828e+02 ;    C20 - C18    - H29   
    26     24     71      1    1.0956e+02    3.8828e+02 ;    C20 - C18    - H30   
    26     27     38      1    1.0924e+02    5.5312e+02 ;    C20 - C21    - F     
    26     27     39      1    1.0924e+02    5.5312e+02 ;    C20 - C21    - F1    
    27     25     72      1    1.0956e+02    3.8828e+02 ;    C21 - C19    - H31   
    27     25     73      1    1.0956e+02    3.8828e+02 ;    C21 - C19    - H32   
    27     26     74      1    1.0980e+02    3.8744e+02 ;    C21 - C20    - H33   
    27     26     75      1    1.0980e+02    3.8744e+02 ;    C21 - C20    - H34   
    28      5     29      1    1.2069e+02    5.3053e+02 ;    C22 - N4     - C23   
    28      5     30      1    1.2069e+02    5.3053e+02 ;    C22 - N4     - C24   
    28      6     42      1    1.0822e+02    3.9330e+02 ;    C22 - C      - H1    
    29      5     30      1    1.1564e+02    5.2718e+02 ;    C23 - N4     - C24   
    29     31     37      1    1.0797e+02    5.6902e+02 ;    C23 - C25    - O4    
    29     31     80      1    1.0956e+02    3.8828e+02 ;    C23 - C25    - H39   
    29     31     81      1    1.0956e+02    3.8828e+02 ;    C23 - C25    - H40   
    30     32     37      1    1.0797e+02    5.6902e+02 ;    C24 - C26    - O4    
    30     32     82      1    1.0956e+02    3.8828e+02 ;    C24 - C26    - H41   
    30     32     83      1    1.0956e+02    3.8828e+02 ;    C24 - C26    - H42   
    31     29     76      1    1.0956e+02    3.8828e+02 ;    C25 - C23    - H35   
    31     29     77      1    1.0956e+02    3.8828e+02 ;    C25 - C23    - H36   
    31     37     32      1    1.1248e+02    5.2467e+02 ;    C25 - O4     - C26   
    32     30     78      1    1.0956e+02    3.8828e+02 ;    C26 - C24    - H37   
    32     30     79      1    1.0956e+02    3.8828e+02 ;    C26 - C24    - H38   
    33     40     34      1    1.2005e+02    6.1588e+02 ;      O - S      - O1    
    37     31     80      1    1.0978e+02    4.2509e+02 ;     O4 - C25    - H39   
    37     31     81      1    1.0978e+02    4.2509e+02 ;     O4 - C25    - H40   
    37     32     82      1    1.0978e+02    4.2509e+02 ;     O4 - C26    - H41   
    37     32     83      1    1.0978e+02    4.2509e+02 ;     O4 - C26    - H42   
    38     27     39      1    1.0736e+02    5.9329e+02 ;      F - C21    - F1    
    40     14     54      1    1.0715e+02    3.6150e+02 ;      S - C8     - H13   
    40     15     55      1    1.0715e+02    3.6150e+02 ;      S - C9     - H14   
    40     15     56      1    1.0715e+02    3.6150e+02 ;      S - C9     - H15   
    46     10     47      1    1.0758e+02    3.2970e+02 ;     H5 - C4     - H6    
    48     11     49      1    1.0758e+02    3.2970e+02 ;     H7 - C5     - H8    
    50     12     51      1    1.0758e+02    3.2970e+02 ;     H9 - C6     - H10   
    52     13     53      1    1.0758e+02    3.2970e+02 ;    H11 - C7     - H12   
    55     15     56      1    1.0846e+02    3.2803e+02 ;    H14 - C9     - H15   
    58     17     59      1    1.0758e+02    3.2970e+02 ;    H17 - C11    - H18   
    60     18     61      1    1.0758e+02    3.2970e+02 ;    H19 - C12    - H20   
    62     19     63      1    1.0846e+02    3.2803e+02 ;    H21 - C13    - H22   
    64     20     65      1    1.0846e+02    3.2803e+02 ;    H23 - C14    - H24   
    66     21     67      1    1.0846e+02    3.2803e+02 ;    H25 - C15    - H26   
    68     22     69      1    1.0758e+02    3.2970e+02 ;    H27 - C16    - H28   
    70     24     71      1    1.0846e+02    3.2803e+02 ;    H29 - C18    - H30   
    72     25     73      1    1.0846e+02    3.2803e+02 ;    H31 - C19    - H32   
    74     26     75      1    1.0758e+02    3.2970e+02 ;    H33 - C20    - H34   
    76     29     77      1    1.0846e+02    3.2803e+02 ;    H35 - C23    - H36   
    78     30     79      1    1.0846e+02    3.2803e+02 ;    H37 - C24    - H38   
    80     31     81      1    1.0846e+02    3.2803e+02 ;    H39 - C25    - H40   
    82     32     83      1    1.0846e+02    3.2803e+02 ;    H41 - C26    - H42   

[ dihedrals ] ; propers
; for gromacs 4.5 or higher, using funct 9
;    i      j      k      l   func   phase     kd      pn
     1      2      6      7      9     0.00   1.25520   3 ;      N-    N1-     C-    C1
     1      2      6     28      9     0.00   1.25520   3 ;      N-    N1-     C-   C22
     1      2      6     42      9     0.00   1.25520   3 ;      N-    N1-     C-    H1
     1      8      7      6      9     0.00   0.65084   3 ;      N-    C2-    C1-     C
     1      8      7     15      9     0.00   0.65084   3 ;      N-    C2-    C1-    C9
     1      8      7     43      9     0.00   0.65084   3 ;      N-    C2-    C1-    H2
     1      8      9     10      9     0.00   0.65084   3 ;      N-    C2-    C3-    C4
     1      8      9     14      9     0.00   0.65084   3 ;      N-    C2-    C3-    C8
     1      8      9     45      9     0.00   0.65084   3 ;      N-    C2-    C3-    H4
     1     16     17     18      9     0.00   0.65084   3 ;      N-   C10-   C11-   C12
     1     16     17     58      9     0.00   0.65084   3 ;      N-   C10-   C11-   H17
     1     16     17     59      9     0.00   0.65084   3 ;      N-   C10-   C11-   H18
     1     16     20      3      9     0.00   0.65084   3 ;      N-   C10-   C14-    N2
     1     16     20     64      9     0.00   0.65084   3 ;      N-   C10-   C14-   H23
     1     16     20     65      9     0.00   0.65084   3 ;      N-   C10-   C14-   H24
     2      1      8      7      9     0.00   1.25520   3 ;     N1-     N-    C2-    C1
     2      1      8      9      9     0.00   1.25520   3 ;     N1-     N-    C2-    C3
     2      1      8     44      9     0.00   1.25520   3 ;     N1-     N-    C2-    H3
     2      1     16     17      9     0.00   1.25520   3 ;     N1-     N-   C10-   C11
     2      1     16     20      9     0.00   1.25520   3 ;     N1-     N-   C10-   C14
     2      1     16     57      9     0.00   1.25520   3 ;     N1-     N-   C10-   H16
     2      6      7      8      9     0.00   0.65084   3 ;     N1-     C-    C1-    C2
     2      6      7     15      9     0.00   0.65084   3 ;     N1-     C-    C1-    C9
     2      6      7     43      9     0.00   0.65084   3 ;     N1-     C-    C1-    H2
     2      6     28      5      9   180.00   0.00000   2 ;     N1-     C-   C22-    N4
     2      6     28     36      9   180.00   0.00000   2 ;     N1-     C-   C22-    O3
     3     19     18     17      9     0.00   0.65084   3 ;     N2-   C13-   C12-   C11
     3     19     18     60      9     0.00   0.65084   3 ;     N2-   C13-   C12-   H19
     3     19     18     61      9     0.00   0.65084   3 ;     N2-   C13-   C12-   H20
     3     20     16     17      9     0.00   0.65084   3 ;     N2-   C14-   C10-   C11
     3     20     16     57      9     0.00   0.65084   3 ;     N2-   C14-   C10-   H16
     3     21     22     23      9     0.00   0.65084   3 ;     N2-   C15-   C16-   C17
     3     21     22     68      9     0.00   0.65084   3 ;     N2-   C15-   C16-   H27
     3     21     22     69      9     0.00   0.65084   3 ;     N2-   C15-   C16-   H28
     4     23     22     21      9     0.00   0.29288   2 ;     N3-   C17-   C16-   C15
     4     23     22     21      9     0.00   0.41840   4 ;     N3-   C17-   C16-   C15
     4     23     22     68      9   180.00   0.00000   2 ;     N3-   C17-   C16-   H27
     4     23     22     69      9   180.00   0.00000   2 ;     N3-   C17-   C16-   H28
     4     24     26     27      9     0.00   0.65084   3 ;     N3-   C18-   C20-   C21
     4     24     26     74      9     0.00   0.65084   3 ;     N3-   C18-   C20-   H33
     4     24     26     75      9     0.00   0.65084   3 ;     N3-   C18-   C20-   H34
     4     25     27     26      9     0.00   0.65084   3 ;     N3-   C19-   C21-   C20
     4     25     27     38      9     0.00   0.65084   3 ;     N3-   C19-   C21-     F
     4     25     27     39      9     0.00   0.65084   3 ;     N3-   C19-   C21-    F1
     5     28      6      7      9     0.00   0.29288   2 ;     N4-   C22-     C-    C1
     5     28      6      7      9     0.00   0.41840   4 ;     N4-   C22-     C-    C1
     5     28      6     42      9   180.00   0.00000   2 ;     N4-   C22-     C-    H1
     5     29     31     37      9     0.00   0.65084   3 ;     N4-   C23-   C25-    O4
     5     29     31     80      9     0.00   0.65084   3 ;     N4-   C23-   C25-   H39
     5     29     31     81      9     0.00   0.65084   3 ;     N4-   C23-   C25-   H40
     5     30     32     37      9     0.00   0.65084   3 ;     N4-   C24-   C26-    O4
     5     30     32     82      9     0.00   0.65084   3 ;     N4-   C24-   C26-   H41
     5     30     32     83      9     0.00   0.65084   3 ;     N4-   C24-   C26-   H42
     6      7      8      9      9     0.00   0.75312   3 ;      C-    C1-    C2-    C3
     6      7      8      9      9   180.00   0.83680   1 ;      C-    C1-    C2-    C3
     6      7      8      9      9   180.00   1.04600   2 ;      C-    C1-    C2-    C3
     6      7      8     44      9     0.00   0.65084   3 ;      C-    C1-    C2-    H3
     6      7     15     40      9     0.00   0.65084   3 ;      C-    C1-    C9-     S
     6      7     15     55      9     0.00   0.65084   3 ;      C-    C1-    C9-   H14
     6      7     15     56      9     0.00   0.65084   3 ;      C-    C1-    C9-   H15
     6     28      5     29      9     0.00   0.00000   0 ;      C-   C22-    N4-   C23
     6     28      5     29      9   180.00   6.27600   1 ;      C-   C22-    N4-   C23
     6     28      5     30      9     0.00   0.00000   0 ;      C-   C22-    N4-   C24
     6     28      5     30      9   180.00   6.27600   1 ;      C-   C22-    N4-   C24
     7      6      2     41      9     0.00   1.25520   3 ;     C1-     C-    N1-     H
     7      6     28     36      9   180.00   0.00000   2 ;     C1-     C-   C22-    O3
     7      8      9     10      9     0.00   0.75312   3 ;     C1-    C2-    C3-    C4
     7      8      9     10      9   180.00   0.83680   1 ;     C1-    C2-    C3-    C4
     7      8      9     10      9   180.00   1.04600   2 ;     C1-    C2-    C3-    C4
     7      8      9     14      9     0.00   0.75312   3 ;     C1-    C2-    C3-    C8
     7      8      9     14      9   180.00   0.83680   1 ;     C1-    C2-    C3-    C8
     7      8      9     14      9   180.00   1.04600   2 ;     C1-    C2-    C3-    C8
     7      8      9     45      9     0.00   0.66944   3 ;     C1-    C2-    C3-    H4
     7     15     40     14      9     0.00   0.60436   3 ;     C1-    C9-     S-    C8
     7     15     40     33      9     0.00   0.60436   3 ;     C1-    C9-     S-     O
     7     15     40     34      9     0.00   0.60436   3 ;     C1-    C9-     S-    O1
     8      1      2      6      9     0.00   9.41400   2 ;     C2-     N-    N1-     C
     8      1      2     41      9     0.00   9.41400   2 ;     C2-     N-    N1-     H
     8      1     16     17      9     0.00   1.25520   3 ;     C2-     N-   C10-   C11
     8      1     16     17      9   180.00   2.00832   2 ;     C2-     N-   C10-   C11
     8      1     16     20      9     0.00   1.25520   3 ;     C2-     N-   C10-   C14
     8      1     16     20      9   180.00   2.00832   2 ;     C2-     N-   C10-   C14
     8      1     16     57      9     0.00   1.25520   3 ;     C2-     N-   C10-   H16
     8      7      6     28      9     0.00   0.65084   3 ;     C2-    C1-     C-   C22
     8      7      6     42      9     0.00   0.65084   3 ;     C2-    C1-     C-    H1
     8      7     15     40      9     0.00   0.65084   3 ;     C2-    C1-    C9-     S
     8      7     15     55      9     0.00   0.65084   3 ;     C2-    C1-    C9-   H14
     8      7     15     56      9     0.00   0.65084   3 ;     C2-    C1-    C9-   H15
     8      9     10     11      9     0.00   0.75312   3 ;     C2-    C3-    C4-    C5
     8      9     10     11      9   180.00   0.83680   1 ;     C2-    C3-    C4-    C5
     8      9     10     11      9   180.00   1.04600   2 ;     C2-    C3-    C4-    C5
     8      9     10     46      9     0.00   0.66944   3 ;     C2-    C3-    C4-    H5
     8      9     10     47      9     0.00   0.66944   3 ;     C2-    C3-    C4-    H6
     8      9     14     13      9     0.00   0.75312   3 ;     C2-    C3-    C8-    C7
     8      9     14     13      9   180.00   0.83680   1 ;     C2-    C3-    C8-    C7
     8      9     14     13      9   180.00   1.04600   2 ;     C2-    C3-    C8-    C7
     8      9     14     40      9     0.00   0.65084   3 ;     C2-    C3-    C8-     S
     8      9     14     54      9     0.00   0.65084   3 ;     C2-    C3-    C8-   H13
     9      8      7     15      9     0.00   0.75312   3 ;     C3-    C2-    C1-    C9
     9      8      7     15      9   180.00   0.83680   1 ;     C3-    C2-    C1-    C9
     9      8      7     15      9   180.00   1.04600   2 ;     C3-    C2-    C1-    C9
     9      8      7     43      9     0.00   0.66944   3 ;     C3-    C2-    C1-    H2
     9     10     11     12      9     0.00   0.75312   3 ;     C3-    C4-    C5-    C6
     9     10     11     12      9   180.00   0.83680   1 ;     C3-    C4-    C5-    C6
     9     10     11     12      9   180.00   1.04600   2 ;     C3-    C4-    C5-    C6
     9     10     11     48      9     0.00   0.66944   3 ;     C3-    C4-    C5-    H7
     9     10     11     49      9     0.00   0.66944   3 ;     C3-    C4-    C5-    H8
     9     14     13     12      9     0.00   0.75312   3 ;     C3-    C8-    C7-    C6
     9     14     13     12      9   180.00   0.83680   1 ;     C3-    C8-    C7-    C6
     9     14     13     12      9   180.00   1.04600   2 ;     C3-    C8-    C7-    C6
     9     14     13     52      9     0.00   0.66944   3 ;     C3-    C8-    C7-   H11
     9     14     13     53      9     0.00   0.66944   3 ;     C3-    C8-    C7-   H12
     9     14     40     15      9     0.00   0.60436   3 ;     C3-    C8-     S-    C9
     9     14     40     33      9     0.00   0.60436   3 ;     C3-    C8-     S-     O
     9     14     40     34      9     0.00   0.60436   3 ;     C3-    C8-     S-    O1
    10      9      8     44      9     0.00   0.65084   3 ;     C4-    C3-    C2-    H3
    10      9     14     13      9     0.00   0.75312   3 ;     C4-    C3-    C8-    C7
    10      9     14     13      9   180.00   0.83680   1 ;     C4-    C3-    C8-    C7
    10      9     14     13      9   180.00   1.04600   2 ;     C4-    C3-    C8-    C7
    10      9     14     40      9     0.00   0.65084   3 ;     C4-    C3-    C8-     S
    10      9     14     54      9     0.00   0.65084   3 ;     C4-    C3-    C8-   H13
    10     11     12     13      9     0.00   0.75312   3 ;     C4-    C5-    C6-    C7
    10     11     12     13      9   180.00   0.83680   1 ;     C4-    C5-    C6-    C7
    10     11     12     13      9   180.00   1.04600   2 ;     C4-    C5-    C6-    C7
    10     11     12     50      9     0.00   0.66944   3 ;     C4-    C5-    C6-    H9
    10     11     12     51      9     0.00   0.66944   3 ;     C4-    C5-    C6-   H10
    11     10      9     14      9     0.00   0.75312   3 ;     C5-    C4-    C3-    C8
    11     10      9     14      9   180.00   0.83680   1 ;     C5-    C4-    C3-    C8
    11     10      9     14      9   180.00   1.04600   2 ;     C5-    C4-    C3-    C8
    11     10      9     45      9     0.00   0.66944   3 ;     C5-    C4-    C3-    H4
    11     12     13     14      9     0.00   0.75312   3 ;     C5-    C6-    C7-    C8
    11     12     13     14      9   180.00   0.83680   1 ;     C5-    C6-    C7-    C8
    11     12     13     14      9   180.00   1.04600   2 ;     C5-    C6-    C7-    C8
    11     12     13     52      9     0.00   0.66944   3 ;     C5-    C6-    C7-   H11
    11     12     13     53      9     0.00   0.66944   3 ;     C5-    C6-    C7-   H12
    12     11     10     46      9     0.00   0.66944   3 ;     C6-    C5-    C4-    H5
    12     11     10     47      9     0.00   0.66944   3 ;     C6-    C5-    C4-    H6
    12     13     14     40      9     0.00   0.65084   3 ;     C6-    C7-    C8-     S
    12     13     14     54      9     0.00   0.65084   3 ;     C6-    C7-    C8-   H13
    13     12     11     48      9     0.00   0.66944   3 ;     C7-    C6-    C5-    H7
    13     12     11     49      9     0.00   0.66944   3 ;     C7-    C6-    C5-    H8
    13     14      9     45      9     0.00   0.66944   3 ;     C7-    C8-    C3-    H4
    13     14     40     15      9     0.00   0.60436   3 ;     C7-    C8-     S-    C9
    13     14     40     33      9     0.00   0.60436   3 ;     C7-    C8-     S-     O
    13     14     40     34      9     0.00   0.60436   3 ;     C7-    C8-     S-    O1
    14      9      8     44      9     0.00   0.65084   3 ;     C8-    C3-    C2-    H3
    14      9     10     46      9     0.00   0.66944   3 ;     C8-    C3-    C4-    H5
    14      9     10     47      9     0.00   0.66944   3 ;     C8-    C3-    C4-    H6
    14     13     12     50      9     0.00   0.66944   3 ;     C8-    C7-    C6-    H9
    14     13     12     51      9     0.00   0.66944   3 ;     C8-    C7-    C6-   H10
    14     40     15     55      9     0.00   0.60436   3 ;     C8-     S-    C9-   H14
    14     40     15     56      9     0.00   0.60436   3 ;     C8-     S-    C9-   H15
    15      7      6     28      9     0.00   0.65084   3 ;     C9-    C1-     C-   C22
    15      7      6     42      9     0.00   0.65084   3 ;     C9-    C1-     C-    H1
    15      7      8     44      9     0.00   0.65084   3 ;     C9-    C1-    C2-    H3
    15     40     14     54      9     0.00   0.60436   3 ;     C9-     S-    C8-   H13
    16      1      2      6      9     0.00   9.41400   2 ;    C10-     N-    N1-     C
    16      1      2     41      9     0.00   9.41400   2 ;    C10-     N-    N1-     H
    16      1      8      7      9     0.00   1.25520   3 ;    C10-     N-    C2-    C1
    16      1      8      7      9   180.00   2.00832   2 ;    C10-     N-    C2-    C1
    16      1      8      9      9     0.00   1.25520   3 ;    C10-     N-    C2-    C3
    16      1      8      9      9   180.00   2.00832   2 ;    C10-     N-    C2-    C3
    16      1      8     44      9     0.00   1.25520   3 ;    C10-     N-    C2-    H3
    16     17     18     19      9     0.00   0.75312   3 ;    C10-   C11-   C12-   C13
    16     17     18     19      9   180.00   0.83680   1 ;    C10-   C11-   C12-   C13
    16     17     18     19      9   180.00   1.04600   2 ;    C10-   C11-   C12-   C13
    16     17     18     60      9     0.00   0.66944   3 ;    C10-   C11-   C12-   H19
    16     17     18     61      9     0.00   0.66944   3 ;    C10-   C11-   C12-   H20
    16     20      3     19      9     0.00   1.25520   3 ;    C10-   C14-    N2-   C13
    16     20      3     19      9   180.00   2.00832   2 ;    C10-   C14-    N2-   C13
    16     20      3     21      9     0.00   1.25520   3 ;    C10-   C14-    N2-   C15
    16     20      3     21      9   180.00   2.00832   2 ;    C10-   C14-    N2-   C15
    17     16     20     64      9     0.00   0.65084   3 ;    C11-   C10-   C14-   H23
    17     16     20     65      9     0.00   0.65084   3 ;    C11-   C10-   C14-   H24
    17     18     19     62      9     0.00   0.65084   3 ;    C11-   C12-   C13-   H21
    17     18     19     63      9     0.00   0.65084   3 ;    C11-   C12-   C13-   H22
    18     17     16     20      9     0.00   0.75312   3 ;    C12-   C11-   C10-   C14
    18     17     16     20      9   180.00   0.83680   1 ;    C12-   C11-   C10-   C14
    18     17     16     20      9   180.00   1.04600   2 ;    C12-   C11-   C10-   C14
    18     17     16     57      9     0.00   0.65084   3 ;    C12-   C11-   C10-   H16
    18     19      3     20      9     0.00   1.25520   3 ;    C12-   C13-    N2-   C14
    18     19      3     20      9   180.00   2.00832   2 ;    C12-   C13-    N2-   C14
    18     19      3     21      9     0.00   1.25520   3 ;    C12-   C13-    N2-   C15
    18     19      3     21      9   180.00   2.00832   2 ;    C12-   C13-    N2-   C15
    19      3     20     64      9     0.00   1.25520   3 ;    C13-    N2-   C14-   H23
    19      3     20     65      9     0.00   1.25520   3 ;    C13-    N2-   C14-   H24
    19      3     21     22      9     0.00   1.25520   3 ;    C13-    N2-   C15-   C16
    19      3     21     22      9   180.00   2.00832   2 ;    C13-    N2-   C15-   C16
    19      3     21     66      9     0.00   1.25520   3 ;    C13-    N2-   C15-   H25
    19      3     21     67      9     0.00   1.25520   3 ;    C13-    N2-   C15-   H26
    19     18     17     58      9     0.00   0.66944   3 ;    C13-   C12-   C11-   H17
    19     18     17     59      9     0.00   0.66944   3 ;    C13-   C12-   C11-   H18
    20      3     19     62      9     0.00   1.25520   3 ;    C14-    N2-   C13-   H21
    20      3     19     63      9     0.00   1.25520   3 ;    C14-    N2-   C13-   H22
    20      3     21     22      9     0.00   1.25520   3 ;    C14-    N2-   C15-   C16
    20      3     21     22      9   180.00   2.00832   2 ;    C14-    N2-   C15-   C16
    20      3     21     66      9     0.00   1.25520   3 ;    C14-    N2-   C15-   H25
    20      3     21     67      9     0.00   1.25520   3 ;    C14-    N2-   C15-   H26
    20     16     17     58      9     0.00   0.66944   3 ;    C14-   C10-   C11-   H17
    20     16     17     59      9     0.00   0.66944   3 ;    C14-   C10-   C11-   H18
    21      3     19     62      9     0.00   1.25520   3 ;    C15-    N2-   C13-   H21
    21      3     19     63      9     0.00   1.25520   3 ;    C15-    N2-   C13-   H22
    21      3     20     64      9     0.00   1.25520   3 ;    C15-    N2-   C14-   H23
    21      3     20     65      9     0.00   1.25520   3 ;    C15-    N2-   C14-   H24
    21     22     23     35      9   180.00   0.00000   2 ;    C15-   C16-   C17-    O2
    22     23      4     24      9     0.00   0.00000   0 ;    C16-   C17-    N3-   C18
    22     23      4     24      9   180.00   6.27600   1 ;    C16-   C17-    N3-   C18
    22     23      4     25      9     0.00   0.00000   0 ;    C16-   C17-    N3-   C19
    22     23      4     25      9   180.00   6.27600   1 ;    C16-   C17-    N3-   C19
    23      4     24     26      9     0.00   0.00000   0 ;    C17-    N3-   C18-   C20
    23      4     24     26      9     0.00   2.21752   1 ;    C17-    N3-   C18-   C20
    23      4     24     26      9   180.00   0.62760   3 ;    C17-    N3-   C18-   C20
    23      4     24     26      9   180.00   2.09200   4 ;    C17-    N3-   C18-   C20
    23      4     24     70      9     0.00   0.00000   0 ;    C17-    N3-   C18-   H29
    23      4     24     71      9     0.00   0.00000   0 ;    C17-    N3-   C18-   H30
    23      4     25     27      9     0.00   0.00000   0 ;    C17-    N3-   C19-   C21
    23      4     25     27      9     0.00   2.21752   1 ;    C17-    N3-   C19-   C21
    23      4     25     27      9   180.00   0.62760   3 ;    C17-    N3-   C19-   C21
    23      4     25     27      9   180.00   2.09200   4 ;    C17-    N3-   C19-   C21
    23      4     25     72      9     0.00   0.00000   0 ;    C17-    N3-   C19-   H31
    23      4     25     73      9     0.00   0.00000   0 ;    C17-    N3-   C19-   H32
    23     22     21     66      9     0.00   0.65084   3 ;    C17-   C16-   C15-   H25
    23     22     21     67      9     0.00   0.65084   3 ;    C17-   C16-   C15-   H26
    24      4     23     35      9   180.00  10.46000   2 ;    C18-    N3-   C17-    O2
    24      4     25     27      9     0.00   0.00000   0 ;    C18-    N3-   C19-   C21
    24      4     25     72      9     0.00   0.00000   0 ;    C18-    N3-   C19-   H31
    24      4     25     73      9     0.00   0.00000   0 ;    C18-    N3-   C19-   H32
    24     26     27     25      9     0.00   0.75312   3 ;    C18-   C20-   C21-   C19
    24     26     27     25      9   180.00   0.83680   1 ;    C18-   C20-   C21-   C19
    24     26     27     25      9   180.00   1.04600   2 ;    C18-   C20-   C21-   C19
    24     26     27     38      9     0.00   0.65084   3 ;    C18-   C20-   C21-     F
    24     26     27     39      9     0.00   0.65084   3 ;    C18-   C20-   C21-    F1
    25      4     23     35      9   180.00  10.46000   2 ;    C19-    N3-   C17-    O2
    25      4     24     26      9     0.00   0.00000   0 ;    C19-    N3-   C18-   C20
    25      4     24     70      9     0.00   0.00000   0 ;    C19-    N3-   C18-   H29
    25      4     24     71      9     0.00   0.00000   0 ;    C19-    N3-   C18-   H30
    25     27     26     74      9     0.00   0.66944   3 ;    C19-   C21-   C20-   H33
    25     27     26     75      9     0.00   0.66944   3 ;    C19-   C21-   C20-   H34
    26     27     25     72      9     0.00   0.65084   3 ;    C20-   C21-   C19-   H31
    26     27     25     73      9     0.00   0.65084   3 ;    C20-   C21-   C19-   H32
    27     26     24     70      9     0.00   0.65084   3 ;    C21-   C20-   C18-   H29
    27     26     24     71      9     0.00   0.65084   3 ;    C21-   C20-   C18-   H30
    28      5     29     31      9     0.00   0.00000   0 ;    C22-    N4-   C23-   C25
    28      5     29     31      9     0.00   2.21752   1 ;    C22-    N4-   C23-   C25
    28      5     29     31      9   180.00   0.62760   3 ;    C22-    N4-   C23-   C25
    28      5     29     31      9   180.00   2.09200   4 ;    C22-    N4-   C23-   C25
    28      5     29     76      9     0.00   0.00000   0 ;    C22-    N4-   C23-   H35
    28      5     29     77      9     0.00   0.00000   0 ;    C22-    N4-   C23-   H36
    28      5     30     32      9     0.00   0.00000   0 ;    C22-    N4-   C24-   C26
    28      5     30     32      9     0.00   2.21752   1 ;    C22-    N4-   C24-   C26
    28      5     30     32      9   180.00   0.62760   3 ;    C22-    N4-   C24-   C26
    28      5     30     32      9   180.00   2.09200   4 ;    C22-    N4-   C24-   C26
    28      5     30     78      9     0.00   0.00000   0 ;    C22-    N4-   C24-   H37
    28      5     30     79      9     0.00   0.00000   0 ;    C22-    N4-   C24-   H38
    28      6      2     41      9     0.00   1.25520   3 ;    C22-     C-    N1-     H
    28      6      7     43      9     0.00   0.65084   3 ;    C22-     C-    C1-    H2
    29      5     28     36      9   180.00  10.46000   2 ;    C23-    N4-   C22-    O3
    29      5     30     32      9     0.00   0.00000   0 ;    C23-    N4-   C24-   C26
    29      5     30     78      9     0.00   0.00000   0 ;    C23-    N4-   C24-   H37
    29      5     30     79      9     0.00   0.00000   0 ;    C23-    N4-   C24-   H38
    29     31     37     32      9     0.00   1.60247   3 ;    C23-   C25-    O4-   C26
    29     31     37     32      9   180.00   0.41840   2 ;    C23-   C25-    O4-   C26
    30      5     28     36      9   180.00  10.46000   2 ;    C24-    N4-   C22-    O3
    30      5     29     31      9     0.00   0.00000   0 ;    C24-    N4-   C23-   C25
    30      5     29     76      9     0.00   0.00000   0 ;    C24-    N4-   C23-   H35
    30      5     29     77      9     0.00   0.00000   0 ;    C24-    N4-   C23-   H36
    30     32     37     31      9     0.00   1.60247   3 ;    C24-   C26-    O4-   C25
    30     32     37     31      9   180.00   0.41840   2 ;    C24-   C26-    O4-   C25
    31     37     32     82      9     0.00   1.60387   3 ;    C25-    O4-   C26-   H41
    31     37     32     83      9     0.00   1.60387   3 ;    C25-    O4-   C26-   H42
    32     37     31     80      9     0.00   1.60387   3 ;    C26-    O4-   C25-   H39
    32     37     31     81      9     0.00   1.60387   3 ;    C26-    O4-   C25-   H40
    33     40     14     54      9     0.00   0.60436   3 ;      O-     S-    C8-   H13
    33     40     15     55      9     0.00   0.60436   3 ;      O-     S-    C9-   H14
    33     40     15     56      9     0.00   0.60436   3 ;      O-     S-    C9-   H15
    34     40     14     54      9     0.00   0.60436   3 ;     O1-     S-    C8-   H13
    34     40     15     55      9     0.00   0.60436   3 ;     O1-     S-    C9-   H14
    34     40     15     56      9     0.00   0.60436   3 ;     O1-     S-    C9-   H15
    35     23     22     68      9     0.00   0.00000   0 ;     O2-   C17-   C16-   H27
    35     23     22     68      9     0.00   3.34720   1 ;     O2-   C17-   C16-   H27
    35     23     22     68      9   180.00   0.33472   3 ;     O2-   C17-   C16-   H27
    35     23     22     69      9     0.00   0.00000   0 ;     O2-   C17-   C16-   H28
    35     23     22     69      9     0.00   3.34720   1 ;     O2-   C17-   C16-   H28
    35     23     22     69      9   180.00   0.33472   3 ;     O2-   C17-   C16-   H28
    36     28      6     42      9     0.00   0.00000   0 ;     O3-   C22-     C-    H1
    36     28      6     42      9     0.00   3.34720   1 ;     O3-   C22-     C-    H1
    36     28      6     42      9   180.00   0.33472   3 ;     O3-   C22-     C-    H1
    37     31     29     76      9     0.00   0.00000   0 ;     O4-   C25-   C23-   H35
    37     31     29     76      9     0.00   1.04600   1 ;     O4-   C25-   C23-   H35
    37     31     29     77      9     0.00   0.00000   0 ;     O4-   C25-   C23-   H36
    37     31     29     77      9     0.00   1.04600   1 ;     O4-   C25-   C23-   H36
    37     32     30     78      9     0.00   0.00000   0 ;     O4-   C26-   C24-   H37
    37     32     30     78      9     0.00   1.04600   1 ;     O4-   C26-   C24-   H37
    37     32     30     79      9     0.00   0.00000   0 ;     O4-   C26-   C24-   H38
    37     32     30     79      9     0.00   1.04600   1 ;     O4-   C26-   C24-   H38
    38     27     25     72      9     0.00   0.00000   0 ;      F-   C21-   C19-   H31
    38     27     25     72      9     0.00   0.79496   1 ;      F-   C21-   C19-   H31
    38     27     25     73      9     0.00   0.00000   0 ;      F-   C21-   C19-   H32
    38     27     25     73      9     0.00   0.79496   1 ;      F-   C21-   C19-   H32
    38     27     26     74      9     0.00   0.00000   0 ;      F-   C21-   C20-   H33
    38     27     26     74      9     0.00   0.79496   1 ;      F-   C21-   C20-   H33
    38     27     26     75      9     0.00   0.00000   0 ;      F-   C21-   C20-   H34
    38     27     26     75      9     0.00   0.79496   1 ;      F-   C21-   C20-   H34
    39     27     25     72      9     0.00   0.00000   0 ;     F1-   C21-   C19-   H31
    39     27     25     72      9     0.00   0.79496   1 ;     F1-   C21-   C19-   H31
    39     27     25     73      9     0.00   0.00000   0 ;     F1-   C21-   C19-   H32
    39     27     25     73      9     0.00   0.79496   1 ;     F1-   C21-   C19-   H32
    39     27     26     74      9     0.00   0.00000   0 ;     F1-   C21-   C20-   H33
    39     27     26     74      9     0.00   0.79496   1 ;     F1-   C21-   C20-   H33
    39     27     26     75      9     0.00   0.00000   0 ;     F1-   C21-   C20-   H34
    39     27     26     75      9     0.00   0.79496   1 ;     F1-   C21-   C20-   H34
    40     14      9     45      9     0.00   0.65084   3 ;      S-    C8-    C3-    H4
    40     14     13     52      9     0.00   0.65084   3 ;      S-    C8-    C7-   H11
    40     14     13     53      9     0.00   0.65084   3 ;      S-    C8-    C7-   H12
    40     15      7     43      9     0.00   0.65084   3 ;      S-    C9-    C1-    H2
    41      2      6     42      9     0.00   1.25520   3 ;      H-    N1-     C-    H1
    42      6      7     43      9     0.00   0.65084   3 ;     H1-     C-    C1-    H2
    43      7      8     44      9     0.00   0.65084   3 ;     H2-    C1-    C2-    H3
    43      7     15     55      9     0.00   0.65084   3 ;     H2-    C1-    C9-   H14
    43      7     15     56      9     0.00   0.65084   3 ;     H2-    C1-    C9-   H15
    44      8      9     45      9     0.00   0.65084   3 ;     H3-    C2-    C3-    H4
    45      9     10     46      9     0.00   0.62760   3 ;     H4-    C3-    C4-    H5
    45      9     10     47      9     0.00   0.62760   3 ;     H4-    C3-    C4-    H6
    45      9     14     54      9     0.00   0.65084   3 ;     H4-    C3-    C8-   H13
    46     10     11     48      9     0.00   0.62760   3 ;     H5-    C4-    C5-    H7
    46     10     11     49      9     0.00   0.62760   3 ;     H5-    C4-    C5-    H8
    47     10     11     48      9     0.00   0.62760   3 ;     H6-    C4-    C5-    H7
    47     10     11     49      9     0.00   0.62760   3 ;     H6-    C4-    C5-    H8
    48     11     12     50      9     0.00   0.62760   3 ;     H7-    C5-    C6-    H9
    48     11     12     51      9     0.00   0.62760   3 ;     H7-    C5-    C6-   H10
    49     11     12     50      9     0.00   0.62760   3 ;     H8-    C5-    C6-    H9
    49     11     12     51      9     0.00   0.62760   3 ;     H8-    C5-    C6-   H10
    50     12     13     52      9     0.00   0.62760   3 ;     H9-    C6-    C7-   H11
    50     12     13     53      9     0.00   0.62760   3 ;     H9-    C6-    C7-   H12
    51     12     13     52      9     0.00   0.62760   3 ;    H10-    C6-    C7-   H11
    51     12     13     53      9     0.00   0.62760   3 ;    H10-    C6-    C7-   H12
    52     13     14     54      9     0.00   0.65084   3 ;    H11-    C7-    C8-   H13
    53     13     14     54      9     0.00   0.65084   3 ;    H12-    C7-    C8-   H13
    57     16     17     58      9     0.00   0.65084   3 ;    H16-   C10-   C11-   H17
    57     16     17     59      9     0.00   0.65084   3 ;    H16-   C10-   C11-   H18
    57     16     20     64      9     0.00   0.65084   3 ;    H16-   C10-   C14-   H23
    57     16     20     65      9     0.00   0.65084   3 ;    H16-   C10-   C14-   H24
    58     17     18     60      9     0.00   0.62760   3 ;    H17-   C11-   C12-   H19
    58     17     18     61      9     0.00   0.62760   3 ;    H17-   C11-   C12-   H20
    59     17     18     60      9     0.00   0.62760   3 ;    H18-   C11-   C12-   H19
    59     17     18     61      9     0.00   0.62760   3 ;    H18-   C11-   C12-   H20
    60     18     19     62      9     0.00   0.65084   3 ;    H19-   C12-   C13-   H21
    60     18     19     63      9     0.00   0.65084   3 ;    H19-   C12-   C13-   H22
    61     18     19     62      9     0.00   0.65084   3 ;    H20-   C12-   C13-   H21
    61     18     19     63      9     0.00   0.65084   3 ;    H20-   C12-   C13-   H22
    66     21     22     68      9     0.00   0.65084   3 ;    H25-   C15-   C16-   H27
    66     21     22     69      9     0.00   0.65084   3 ;    H25-   C15-   C16-   H28
    67     21     22     68      9     0.00   0.65084   3 ;    H26-   C15-   C16-   H27
    67     21     22     69      9     0.00   0.65084   3 ;    H26-   C15-   C16-   H28
    70     24     26     74      9     0.00   0.65084   3 ;    H29-   C18-   C20-   H33
    70     24     26     75      9     0.00   0.65084   3 ;    H29-   C18-   C20-   H34
    71     24     26     74      9     0.00   0.65084   3 ;    H30-   C18-   C20-   H33
    71     24     26     75      9     0.00   0.65084   3 ;    H30-   C18-   C20-   H34
    76     29     31     80      9     0.00   0.65084   3 ;    H35-   C23-   C25-   H39
    76     29     31     81      9     0.00   0.65084   3 ;    H35-   C23-   C25-   H40
    77     29     31     80      9     0.00   0.65084   3 ;    H36-   C23-   C25-   H39
    77     29     31     81      9     0.00   0.65084   3 ;    H36-   C23-   C25-   H40
    78     30     32     82      9     0.00   0.65084   3 ;    H37-   C24-   C26-   H41
    78     30     32     83      9     0.00   0.65084   3 ;    H37-   C24-   C26-   H42
    79     30     32     82      9     0.00   0.65084   3 ;    H38-   C24-   C26-   H41
    79     30     32     83      9     0.00   0.65084   3 ;    H38-   C24-   C26-   H42

[ dihedrals ] ; impropers
; treated as propers in GROMACS to use correct AMBER analytical function
;    i      j      k      l   func   phase     kd      pn
     6      5     28     36      4   180.00  43.93200   2 ;      C-    N4-   C22-    O3
    22      4     23     35      4   180.00  43.93200   2 ;    C16-    N3-   C17-    O2
    23     24      4     25      4   180.00   4.60240   2 ;    C17-   C18-    N3-   C19
    28     29      5     30      4   180.00   4.60240   2 ;    C22-   C23-    N4-   C24
